proges selanjutnya :
1.Akses ke komputer kemudian melakukan registrasi pada laman 
https://chemcompute.org/register/. Pengguna perlu mengisi data username(osyellah), email(osyellah@gmail.com), 
dan password kemudian klik tombol SIGN ME UP. Email konfirmasi akan otomatis 
dikirim pada alamat email yang kita masukkan. Input perhitungan komputasi dapat 
dibuat secara manual melalui software Avogadro (https://avogadro.cc/)

DIPEROLEH
!   File created by the GAMESS Input Deck Generator Plugin for Avogadro
 $BASIS GBASIS=STO NGAUSS=3 $END
 $CONTRL SCFTYP=ROHF RUNTYP=ENERGY MULT=2 $END

 $DATA 
Title
C1
Cu    29.0    -0.47232     0.26856     0.00000
Cl    17.0     1.39718     1.56220    -0.00000
Cl    17.0    -2.31511     1.59997    -0.00000
 $END
 
 
 KEMUDIAN SETELAH INPUT CODE DIATAS DIPEROLEH CODE DIBAWAH DAN TERBENTUK MOLEKULNYA
 ----- GAMESS execution script 'rungms' -----
This job is running on host chemcompute-node-0.novalocal
under operating system Linux at Wed Jun 15 14:18:16 UTC 2022
SLURM has assigned the following compute nodes to this run:
chemcompute-node-0
Available scratch disk space (Kbyte units) at beginning of the job is
Filesystem     1K-blocks     Used Available Use% Mounted on
/dev/sda1       62903276 16791632  46111644  27% /
GAMESS temporary binary files will be written to /scratch/385486
GAMESS supplementary output files will be written to /data/slurm/434600
Copying input file 434600.inp to your run's scratch directory...
The generated host list is
chemcompute-node-0.novalocal

 Distributed Data Interface kickoff program.
 Initiating 1 compute processes on 1 nodes to run the following command:
 /data/gamess-2019R1-ddi/gamess.00.x 434600 

 ******************************************************
          *         GAMESS VERSION = 30 JUN 2019 (R1)          *
          *             FROM IOWA STATE UNIVERSITY             *
          * M.W.SCHMIDT, K.K.BALDRIDGE, J.A.BOATZ, S.T.ELBERT, *
          *   M.S.GORDON, J.H.JENSEN, S.KOSEKI, N.MATSUNAGA,   *
          *          K.A.NGUYEN, S.J.SU, T.L.WINDUS,           *
          *       TOGETHER WITH M.DUPUIS, J.A.MONTGOMERY       *
          *         J.COMPUT.CHEM.  14, 1347-1363(1993)        *
          **************** 64 BIT LINUX VERSION ****************

  SINCE 1993, STUDENTS AND POSTDOCS WORKING AT IOWA STATE UNIVERSITY
  AND ALSO IN THEIR VARIOUS JOBS AFTER LEAVING ISU HAVE MADE IMPORTANT
  CONTRIBUTIONS TO THE CODE:
     IVANA ADAMOVIC, CHRISTINE AIKENS, YURI ALEXEEV, POOJA ARORA,
     ANDREY ASADCHEV, ROB BELL, PRADIPTA BANDYOPADHYAY, JONATHAN BENTZ,
     COLLEEN BERTONI, BRETT BODE, KURT BRORSEN, CALEB CARLIN, GALINA CHABAN,
     WEI CHEN, CHEOL HO CHOI, PAUL DAY, ALBERT DEFUSCO, NUWAN DESILVA,
     TIM DUDLEY, DMITRI FEDOROV, ALEX FINDLATER, GRAHAM FLETCHER, 
     MARK FREITAG, KURT GLAESEMANN, ANASTASIA GUNINA,
     DAN KEMP, GRANT MERRILL, NORIYUKI MINEZAWA, JONATHAN MULLIN,
     TAKESHI NAGATA, SEAN NEDD, HEATHER NETZLOFF, BOSILJKA NJEGIC, RYAN OLSON,
     MIKE PAK, BUU PHAM,
     SPENCER PRUITT, LUKE ROSKOP, JIM SHOEMAKER, LYUDMILA SLIPCHENKO,
     TONY SMITH, SAROM SOK LEANG, JIE SONG, TETSUYA TAKETSUGU, SIMON WEBB,
     PENG XU, SOOHAENG YOO, FEDERICO ZAHARIEV

  ADDITIONAL CODE HAS BEEN PROVIDED BY COLLABORATORS IN OTHER GROUPS:
     IOWA STATE UNIVERSITY:
          JOE IVANIC, AARON WEST, LAIMUTIS BYTAUTAS, KLAUS RUEDENBERG
     UNIVERSITY OF TOKYO: KIMIHIKO HIRAO, TAKAHITO NAKAJIMA,
          TAKAO TSUNEDA, MUNEAKI KAMIYA, SUSUMU YANAGISAWA,
          KIYOSHI YAGI, MAHITO CHIBA, SEIKEN TOKURA, NAOAKI KAWAKAMI
     UNIVERSITY OF AARHUS: FRANK JENSEN
     UNIVERSITY OF IOWA: VISVALDAS KAIRYS, HUI LI
     NATIONAL INST. OF STANDARDS AND TECHNOLOGY: WALT STEVENS, DAVID GARMER
     UNIVERSITY OF PISA: BENEDETTA MENNUCCI, JACOPO TOMASI
     UNIVERSITY OF MEMPHIS: HENRY KURTZ, PRAKASHAN KORAMBATH
     UNIVERSITY OF ALBERTA: TOBY ZENG, MARIUSZ KLOBUKOWSKI
     UNIVERSITY OF NEW ENGLAND: MARK SPACKMAN
     MIE UNIVERSITY: HIROAKI UMEDA
     NAT. INST. OF ADVANCED INDUSTRIAL SCIENCE AND TECHNOLOGY: KAZUO KITAURA
     MICHIGAN STATE UNIVERSITY:
          KAROL KOWALSKI, MARTA WLOCH, JEFFREY GOUR, JESSE LUTZ,
          WEI LI, JUN SHEN, J. EMILIANO DEUSTUA, PIOTR PIECUCH
     UNIVERSITY OF MINNESOTA:
          YINAN SHU
     UNIVERSITY OF SILESIA: MONIKA MUSIAL, STANISLAW KUCHARSKI
     FACULTES UNIVERSITAIRES NOTRE-DAME DE LA PAIX:
          OLIVIER QUINET, BENOIT CHAMPAGNE
     UNIVERSITY OF CALIFORNIA - SANTA BARBARA: BERNARD KIRTMAN
     INSTITUTE FOR MOLECULAR SCIENCE:
          KAZUYA ISHIMURA, MICHIO KATOUDA, AND SHIGERU NAGASE
     UNIVERSITY OF NOTRE DAME: ANNA POMOGAEVA, DAN CHIPMAN
     KYUSHU UNIVERSITY:
          HARUYUKI NAKANO,
          FENG LONG GU, JACEK KORCHOWIEC, MARCIN MAKOWSKI, AND YURIKO AOKI,
          HIROTOSHI MORI AND EISAKU MIYOSHI
     PENNSYLVANIA STATE UNIVERSITY:
          TZVETELIN IORDANOV, CHET SWALINA, JONATHAN SKONE,
          SHARON HAMMES-SCHIFFER
     WASEDA UNIVERSITY:
          MASATO KOBAYASHI, TOMOKO AKAMA, TSUGUKI TOUMA,
          TAKESHI YOSHIKAWA, YASUHIRO IKABATA, JUNJI SEINO,
          YUYA NAKAJIMA, HIROMI NAKAI
     NANJING UNIVERSITY: SHUHUA LI
     UNIVERSITY OF NEBRASKA:
          PEIFENG SU, DEJUN SI, NANDUN THELLAMUREGE, YALI WANG, HUI LI
     UNIVERSITY OF ZURICH: ROBERTO PEVERATI, KIM BALDRIDGE
     N. COPERNICUS UNIVERSITY AND JACKSON STATE UNIVERSITY:
          MARIA BARYSZ
     UNIVERSITY OF COPENHAGEN: Jimmy Kromann, CASPER STEINMANN
     TOKYO INSTITUTE OF TECHNOLOGY: HIROYA NAKATA
     NAGOYA UNIVERSITY: YOSHIO NISHIMOTO, STEPHAN IRLE
     MOSCOW STATE UNIVERSITY: VLADIMIR MIRONOV
     A.N.NESMEYANOV INSTITUTE OF ORGANOELEMENT COMPOUNDS OF RUSSIAN ACADEMY OF SCIENCES:
          IGOR S. GERASIMOV

 EXECUTION OF GAMESS BEGUN Wed Jun 15 14:18:18 2022

            ECHO OF THE FIRST FEW INPUT CARDS -
 INPUT CARD>!   File created by the GAMESS Input Deck Generator Plugin for Avogadro         
 INPUT CARD> $BASIS GBASIS=STO NGAUSS=3 $END                                                
 INPUT CARD> $CONTRL SCFTYP=ROHF RUNTYP=ENERGY MULT=2 $END                                  
 INPUT CARD>                                                                                
 INPUT CARD> $DATA                                                                          
 INPUT CARD>Title                                                                           
 INPUT CARD>C1                                                                              
 INPUT CARD>Cu    29.0    -0.47232     0.26856     0.00000                                  
 INPUT CARD>Cl    17.0     1.39718     1.56220    -0.00000                                  
 INPUT CARD>Cl    17.0    -2.31511     1.59997    -0.00000                                  
 INPUT CARD> $END                                                                           
    1000000 WORDS OF MEMORY AVAILABLE

     BASIS OPTIONS
     -------------
     GBASIS=STO          IGAUSS=       3      POLAR=NONE    
     NDFUNC=       0     NFFUNC=       0     DIFFSP=       F
     NPFUNC=       0      DIFFS=       F     BASNAM=        


     RUN TITLE
     ---------
 Title                                                                           

 THE POINT GROUP OF THE MOLECULE IS C1      
 THE ORDER OF THE PRINCIPAL AXIS IS     0

 ATOM      ATOMIC                      COORDINATES (BOHR)
           CHARGE         X                   Y                   Z
 CU         29.0    -0.8925553785        0.5075048113        0.0000000000
 CL         17.0     2.6402873555        2.9521299380       -0.0000000000
 CL         17.0    -4.3749235314        3.0235048886       -0.0000000000

          INTERNUCLEAR DISTANCES (ANGS.)
          ------------------------------

                1 CU         2 CL         3 CL    

   1 CU      0.0000000    2.2734412 *  2.2734396 *
   2 CL      2.2734412 *  0.0000000    3.7124821  
   3 CL      2.2734396 *  3.7124821    0.0000000  

  * ... LESS THAN  3.000


     ATOMIC BASIS SET
     ----------------
 THE CONTRACTED PRIMITIVE FUNCTIONS HAVE BEEN UNNORMALIZED
 THE CONTRACTED BASIS FUNCTIONS ARE NOW NORMALIZED TO UNITY

  SHELL TYPE  PRIMITIVE        EXPONENT          CONTRACTION COEFFICIENT(S)

 CU        

      1   S       1          1801.8067297    0.154328967295
      1   S       2           328.2013450    0.535328142282
      1   S       3            88.8240923    0.444634542185

      2   L       4           144.1212184   -0.099967229187    0.155916274999
      2   L       5            33.4906717    0.399512826089    0.607683718598
      2   L       6            10.8922059    0.700115468880    0.391957393099

      3   L       7            11.9749743   -0.219620369005    0.010587604289
      3   L       8             3.3409874    0.225595433605    0.595167005266
      3   L       9             1.3076398    0.900398426019    0.462001011973

      4   D      10            10.0317381    0.168659606013
      4   D      11             3.1454663    0.584798481745
      4   D      12             1.2252366    0.405677952331

      5   L      13             0.5253502   -0.308844121382   -0.121546859998
      5   L      14             0.1938873    0.019606411652    0.571522760389
      5   L      15             0.0856227    1.131034441567    0.549894947089

 CL        

      6   S      16           601.3456136    0.154328967295
      6   S      17           109.5358542    0.535328142282
      6   S      18            29.6446769    0.444634542185

      7   L      19            38.9604189   -0.099967229187    0.155916274999
      7   L      20             9.0535635    0.399512826089    0.607683718598
      7   L      21             2.9444998    0.700115468880    0.391957393099

      8   L      22             2.2112785   -0.219620369005    0.010587604289
      8   L      23             0.6169411    0.225595433605    0.595167005266
      8   L      24             0.2414666    0.900398426019    0.462001011973

 CL        

      9   S      25           601.3456136    0.154328967295
      9   S      26           109.5358542    0.535328142282
      9   S      27            29.6446769    0.444634542185

     10   L      28            38.9604189   -0.099967229187    0.155916274999
     10   L      29             9.0535635    0.399512826089    0.607683718598
     10   L      30             2.9444998    0.700115468880    0.391957393099

     11   L      31             2.2112785   -0.219620369005    0.010587604289
     11   L      32             0.6169411    0.225595433605    0.595167005266
     11   L      33             0.2414666    0.900398426019    0.462001011973

 TOTAL NUMBER OF BASIS SET SHELLS             =   11
 NUMBER OF CARTESIAN GAUSSIAN BASIS FUNCTIONS =   37
 NUMBER OF ELECTRONS                          =   63
 CHARGE OF MOLECULE                           =    0
 SPIN MULTIPLICITY                            =    2
 NUMBER OF OCCUPIED ORBITALS (ALPHA)          =   32
 NUMBER OF OCCUPIED ORBITALS (BETA )          =   31
 TOTAL NUMBER OF ATOMS                        =    3
 THE NUCLEAR REPULSION ENERGY IS      270.7003103820

     $CONTRL OPTIONS
     ---------------
 SCFTYP=ROHF         RUNTYP=ENERGY       EXETYP=RUN     
 MPLEVL=       0     CITYP =NONE         CCTYP =NONE         VBTYP =NONE    
 DFTTYP=NONE         TDDFT =NONE    
 MULT  =       2     ICHARG=       0     NZVAR =       0     COORD =UNIQUE  
 PP    =NONE         RELWFN=NONE         LOCAL =NONE         NUMGRD=       F
 ISPHER=      -1     NOSYM =       0     MAXIT =      30     UNITS =ANGS    
 PLTORB=       F     MOLPLT=       F     AIMPAC=       F     FRIEND=        
 NPRINT=       7     IREST =       0     GEOM  =INPUT   
 NORMF =       0     NORMP =       0     ITOL  =      20     ICUT  =       9
 INTTYP=BEST         GRDTYP=BEST         QMTTOL= 1.0E-06

     $SYSTEM OPTIONS
     ---------------
  REPLICATED MEMORY=     1000000 WORDS (ON EVERY NODE).
 DISTRIBUTED MEMDDI=           0 MILLION WORDS IN AGGREGATE,
 MEMDDI DISTRIBUTED OVER   1 PROCESSORS IS           0 WORDS/PROCESSOR.
 TOTAL MEMORY REQUESTED ON EACH PROCESSOR=     1000000 WORDS.
 TIMLIM=      525600.00 MINUTES, OR     365.0 DAYS.
 PARALL= F  BALTYP=  DLB     KDIAG=    0  COREFL= F
 MXSEQ2=     300 MXSEQ3=     150  mem10=         0

          ----------------
          PROPERTIES INPUT
          ----------------

     MOMENTS            FIELD           POTENTIAL          DENSITY
 IEMOM =       1   IEFLD =       0   IEPOT =       0   IEDEN =       0
 WHERE =COMASS     WHERE =NUCLEI     WHERE =NUCLEI     WHERE =NUCLEI  
 OUTPUT=BOTH       OUTPUT=BOTH       OUTPUT=BOTH       OUTPUT=BOTH    
 IEMINT=       0   IEFINT=       0                     IEDINT=       0
                                                       MORB  =       0
          EXTRAPOLATION IN EFFECT
          SOSCF IN EFFECT
 ORBITAL PRINTING OPTION: NPREO=     1    37     2     1

     -------------------------------
     INTEGRAL TRANSFORMATION OPTIONS
     -------------------------------
     NWORD  =            0
     CUTOFF = 1.0E-09     MPTRAN =       0
     DIRTRF =       F     AOINTS =DUP     

          ----------------------
          INTEGRAL INPUT OPTIONS
          ----------------------
 NOPK  =       1 NORDER=       0 SCHWRZ=       F

     ------------------------------------------
     THE POINT GROUP IS C1 , NAXIS= 0, ORDER= 1
     ------------------------------------------

     DIMENSIONS OF THE SYMMETRY SUBSPACES ARE
 A   =   37

 ..... DONE SETTING UP THE RUN .....
 STEP CPU TIME =     0.07 TOTAL CPU TIME =          0.1 (      0.0 MIN)
 TOTAL WALL CLOCK TIME=          0.1 SECONDS, CPU UTILIZATION IS    46.67%

          ********************
          1 ELECTRON INTEGRALS
          ********************
 ...... END OF ONE-ELECTRON INTEGRALS ......
 STEP CPU TIME =     0.02 TOTAL CPU TIME =          0.1 (      0.0 MIN)
 TOTAL WALL CLOCK TIME=          0.2 SECONDS, CPU UTILIZATION IS    52.94%

          -------------
          GUESS OPTIONS
          -------------
          GUESS =HUCKEL            NORB  =       0          NORDER=       0
          MIX   =       F          PRTMO =       F          PUNMO =       F
          TOLZ  = 1.0E-08          TOLE  = 1.0E-05
          SYMDEN=       F          PURIFY=       F

 INITIAL GUESS ORBITALS GENERATED BY HUCKEL   ROUTINE.
 HUCKEL GUESS REQUIRES     17134 WORDS.

 SYMMETRIES FOR INITIAL GUESS ORBITALS FOLLOW.  ALPHA SET(S).
    32 ORBITALS ARE OCCUPIED (   19 CORE ORBITALS).
    20=A       21=A       22=A       23=A       24=A       25=A       26=A   
    27=A       28=A       29=A       30=A       31=A       32=A       33=A   
    34=A       35=A       36=A       37=A   

 SYMMETRIES FOR INITIAL GUESS ORBITALS FOLLOW.   BETA SET(S).
    31 ORBITALS ARE OCCUPIED (   19 CORE ORBITALS).
    20=A       21=A       22=A       23=A       24=A       25=A       26=A   
    27=A       28=A       29=A       30=A       31=A       32=A       33=A   
    34=A       35=A       36=A       37=A   
 ...... END OF INITIAL ORBITAL SELECTION ......
 STEP CPU TIME =     0.04 TOTAL CPU TIME =          0.1 (      0.0 MIN)
 TOTAL WALL CLOCK TIME=          0.2 SECONDS, CPU UTILIZATION IS    61.90%

                    ----------------------
                    AO INTEGRAL TECHNOLOGY
                    ----------------------
     S,P,L SHELL ROTATED AXIS INTEGRALS, REPROGRAMMED BY
        KAZUYA ISHIMURA (IMS) AND JOSE SIERRA (SYNSTAR).
     S,P,D,L SHELL ROTATED AXIS INTEGRALS PROGRAMMED BY
        KAZUYA ISHIMURA (INSTITUTE FOR MOLECULAR SCIENCE).
     S,P,D,F,G SHELL TO TOTAL QUARTET ANGULAR MOMENTUM SUM 5,
        ERIC PROGRAM BY GRAHAM FLETCHER (ELORET AND NASA ADVANCED
        SUPERCOMPUTING DIVISION, AMES RESEARCH CENTER).
     S,P,D,F,G,L SHELL GENERAL RYS QUADRATURE PROGRAMMED BY
        MICHEL DUPUIS (PACIFIC NORTHWEST NATIONAL LABORATORY).

          --------------------
          2 ELECTRON INTEGRALS
          --------------------

 THE -PK- OPTION IS OFF, THE INTEGRALS ARE NOT IN SUPERMATRIX FORM.
 STORING   15000 INTEGRALS/RECORD ON DISK, USING 12 BYTES/INTEGRAL.
 TWO ELECTRON INTEGRAL EVALUATION REQUIRES   90462 WORDS OF MEMORY.
 II,JST,KST,LST =  1  1  1  1 NREC =         1 INTLOC =    1
 II,JST,KST,LST =  2  1  1  1 NREC =         1 INTLOC =    2
 II,JST,KST,LST =  3  1  1  1 NREC =         1 INTLOC =   34
 II,JST,KST,LST =  4  1  1  1 NREC =         1 INTLOC =  214
 II,JST,KST,LST =  5  1  1  1 NREC =         1 INTLOC = 1189
 II,JST,KST,LST =  6  1  1  1 NREC =         1 INTLOC = 2864
 II,JST,KST,LST =  7  1  1  1 NREC =         1 INTLOC = 3415
 II,JST,KST,LST =  8  1  1  1 NREC =         1 INTLOC = 8939
 II,JST,KST,LST =  9  1  1  1 NREC =         2 INTLOC =10323
 II,JST,KST,LST = 10  1  1  1 NREC =         2 INTLOC =11595
 II,JST,KST,LST = 11  1  1  1 NREC =         3 INTLOC = 7305
 TOTAL NUMBER OF NONZERO TWO-ELECTRON INTEGRALS =               69932
          5 INTEGRAL RECORDS WERE STORED ON DISK FILE  8.
  ...... END OF TWO-ELECTRON INTEGRALS .....
 STEP CPU TIME =     0.03 TOTAL CPU TIME =          0.2 (      0.0 MIN)
 TOTAL WALL CLOCK TIME=          0.2 SECONDS, CPU UTILIZATION IS    64.00%

          ---------------------------
                 ROHF SCF CALCULATION
          ---------------------------

     NUCLEAR ENERGY =       270.7003103820
     MAXIT = 30     NPUNCH=  2     MULT=  2
     EXTRAP=T  DAMP=F  SHIFT=F  RSTRCT=F  DIIS=F  SOSCF=T
     DENSITY MATRIX CONV=  1.00E-05
     ROHF CANONICALIZATION PARAMETERS
             C-C     O-O     V-V
     ALPHA -0.5000  0.5000  1.5000
     BETA   1.5000  0.5000 -0.5000
     SOSCF WILL OPTIMIZE     191 ORBITAL ROTATION ANGLES. SOGTOL= 2.500E-01
     MEMORY REQUIRED FOR UHF/ROHF ITERS=     43986 WORDS.

 ITER EX      TOTAL ENERGY        E CHANGE  DENSITY CHANGE    ORB. GRAD 
   1  0    -2528.5099873013 -2528.5099873013   3.091444871   0.000000000
   2  1    -2513.1283002934    15.3816870079  46.973674223   1.435510062
   3  2    -2517.1328010882    -4.0045007948  47.511808295   1.906898428
   4  3    -2511.6540369954     5.4787640928  54.937193924   1.579113460
   5  0    -2516.0458023202    -4.3917653248  51.235301560   1.856861256
   6  1    -2528.1430540585   -12.0972517384   3.352528712   0.626962544
   7  2    -2512.0987950637    16.0442589948  52.018534201   1.487561299
   8  3    -2516.4272207623    -4.3284256987  52.418923835   1.888168161
   9  0    -2511.6326899876     4.7945307747   3.702092308   1.592854258
  10  1    -2528.1481583438   -16.5154683561   3.302706751   0.622965162
  11  2    -2512.1045084750    16.0436498687  51.991346494   1.487621735
  12  3    -2516.4313835795    -4.3268751045  52.390440003   1.888383818
  13  0    -2511.6328189406     4.7985646389   3.701739721   1.592778794
  14  1    -2528.1481699978   -16.5153510573   3.302649366   0.622955369
  15  2    -2512.1045268686    16.0436431292  51.991249189   1.487621839
  16  3    -2516.4313970967    -4.3268702281  52.390338485   1.888384666
  17  0    -2511.6328194092     4.7985776876   3.701739171   1.592778516
  18  1    -2528.1481543764   -16.5153349672   3.302648734   0.622955335
  19  2    -2512.1045923371    16.0435620393  51.990923304   1.487619385
  20  3    -2516.4314036314    -4.3268112943  52.390010354   1.888388583
  21  0    -2511.6328208316     4.7985827998   3.701757430   1.592777567
  22  1    -2528.1477125605   -16.5148917288   3.302638461   0.622955317
  23  2    -2512.1063976388    16.0413149217  51.981881964   1.487551951
  24  3    -2516.4316573967    -4.3252597579  52.380907199   1.888494212
  25  0    -2511.6328602889     4.7987971078   3.702199622   1.592751487
  26  1    -2528.1417837180   -16.5089234290   3.302849762   0.622952267
  27  2    -2512.1239976674    16.0177860506  51.891084648   1.486912594
  28  3    -2516.4375404187    -4.3135427514  52.289505013   1.889400850
  29  0    -2511.6332561348     4.8042842839   3.705035490   1.592500079
  30  1    -2528.1315701050   -16.4983139703   3.306406387   0.622922779

 SCF IS UNCONVERGED, TOO MANY ITERATIONS
     TIME TO FORM FOCK OPERATORS=       0.1 SECONDS (       0.0 SEC/ITER)
     TIME TO SOLVE SCF EQUATIONS=       0.2 SECONDS (       0.0 SEC/ITER)

 FINAL ROHF ENERGY IS        0.0000000000 AFTER  30 ITERATIONS

          --------------------
          SPIN SZ   =    0.500
          S-SQUARED =    0.750
          --------------------

          ------------
          EIGENVECTORS
          ------------

                      1          2          3          4          5
                 -324.1161  -103.8749  -103.2690   -38.7671   -34.1910
                     A          A          A          A          A   
    1  CU 1  S    0.993116   0.000004   0.000004  -0.429069   0.000000
    2  CU 1  S    0.017744  -0.000021  -0.000021   1.033191   0.000000
    3  CU 1  X   -0.000003  -0.000009   0.000009  -0.000963   0.000000
    4  CU 1  Y   -0.000007   0.000007   0.000007  -0.001332  -0.000000
    5  CU 1  Z    0.000000   0.000000  -0.000000   0.000000   0.991394
    6  CU 1  S   -0.014529   0.000359   0.000363   0.369350  -0.000000
    7  CU 1  X    0.000001   0.000031  -0.000032  -0.000079   0.000000
    8  CU 1  Y    0.000008  -0.000026  -0.000026  -0.000242   0.000000
    9  CU 1  Z    0.000000   0.000000  -0.000000   0.000000   0.024631
   10  CU 1 XX    0.005516  -0.000154  -0.000156  -0.132274   0.000000
   11  CU 1 YY    0.005518  -0.000166  -0.000169  -0.132302   0.000000
   12  CU 1 ZZ    0.005520  -0.000180  -0.000181  -0.132329   0.000000
   13  CU 1 XY    0.000000  -0.000019   0.000019  -0.000005   0.000000
   14  CU 1 XZ    0.000000   0.000000  -0.000000   0.000000  -0.000052
   15  CU 1 YZ    0.000000   0.000000  -0.000000   0.000000  -0.000071
   16  CU 1  S   -0.000478   0.000403   0.000415   0.010182   0.000000
   17  CU 1  X   -0.000001  -0.000388   0.000406   0.000022   0.000000
   18  CU 1  Y   -0.000069   0.000318   0.000319   0.001432   0.000000
   19  CU 1  Z    0.000000   0.000000  -0.000000   0.000000  -0.001551
   20  CL 2  S    0.000003   0.000005   0.994470  -0.000057   0.000000
   21  CL 2  S   -0.000004   0.000005   0.015838   0.000067   0.000000
   22  CL 2  X    0.000005  -0.000012  -0.000061  -0.000101   0.000000
   23  CL 2  Y    0.000002   0.000006  -0.000045  -0.000035   0.000000
   24  CL 2  Z    0.000000  -0.000000  -0.000000   0.000000  -0.000032
   25  CL 2  S    0.000109  -0.000048  -0.002015  -0.002287   0.000000
   26  CL 2  X   -0.000042   0.000063   0.000203   0.000866   0.000000
   27  CL 2  Y   -0.000020  -0.000032   0.000136   0.000414   0.000000
   28  CL 2  Z    0.000000   0.000000  -0.000000   0.000000   0.000175
   29  CL 3  S    0.000003   0.994523  -0.000009  -0.000056   0.000000
   30  CL 3  S   -0.000004   0.015687   0.000005   0.000067   0.000000
   31  CL 3  X   -0.000005   0.000054   0.000012   0.000101   0.000000
   32  CL 3  Y    0.000002  -0.000048   0.000006  -0.000036   0.000000
   33  CL 3  Z    0.000000   0.000000   0.000000   0.000000  -0.000032
   34  CL 3  S    0.000109  -0.001949  -0.000049  -0.002285   0.000000
   35  CL 3  X    0.000042  -0.000193  -0.000065  -0.000857   0.000000
   36  CL 3  Y   -0.000021   0.000137  -0.000031   0.000429   0.000000
   37  CL 3  Z    0.000000   0.000000  -0.000000   0.000000   0.000176

                      6          7          8          9         10
                  -34.1905   -34.1902   -10.5472    -9.9965    -7.9915
                     A          A          A          A          A   
    1  CU 1  S   -0.000392  -0.000639  -0.000062  -0.000065  -0.000013
    2  CU 1  S    0.000966   0.001562   0.000293   0.000306   0.000021
    3  CU 1  X   -0.394080   0.909693   0.000131  -0.000140   0.000061
    4  CU 1  Y    0.909695   0.394083  -0.000111  -0.000115  -0.000041
    5  CU 1  Z    0.000000  -0.000000   0.000000  -0.000000  -0.000000
    6  CU 1  S   -0.000083   0.000215  -0.004837  -0.005082  -0.001295
    7  CU 1  X   -0.009810   0.022635  -0.000456   0.000488  -0.000210
    8  CU 1  Y    0.022625   0.009797   0.000386   0.000400   0.000140
    9  CU 1  Z    0.000000  -0.000000   0.000000  -0.000000  -0.000000
   10  CU 1 XX    0.000117  -0.000111   0.002019   0.002123   0.000200
   11  CU 1 YY   -0.000026  -0.000073   0.002225   0.002347   0.000477
   12  CU 1 ZZ    0.000095  -0.000020   0.002456   0.002564   0.000744
   13  CU 1 XY   -0.000013  -0.000102   0.000338  -0.000330   0.000423
   14  CU 1 XZ   -0.000000  -0.000000   0.000000  -0.000000  -0.000000
   15  CU 1 YZ   -0.000000  -0.000000   0.000000  -0.000000  -0.000000
   16  CU 1  S   -0.000308  -0.000129  -0.007915  -0.008456  -0.007564
   17  CU 1  X    0.000805  -0.001855   0.007581  -0.008265   0.007755
   18  CU 1  Y   -0.001670  -0.000720  -0.006173  -0.006484  -0.005501
   19  CU 1  Z   -0.000000  -0.000000   0.000000  -0.000000  -0.000000
   20  CL 2  S    0.000005   0.000017  -0.000082  -0.376693   0.000047
   21  CL 2  S   -0.000007  -0.000020   0.000241   1.052314  -0.000125
   22  CL 2  X    0.000032   0.000028   0.000151  -0.002780  -0.000140
   23  CL 2  Y   -0.000025   0.000032  -0.000081  -0.002553   0.000093
   24  CL 2  Z   -0.000000  -0.000000   0.000000  -0.000000  -0.000000
   25  CL 2  S    0.000168   0.000673   0.000946   0.050040   0.000605
   26  CL 2  X   -0.000194  -0.000238  -0.001181  -0.004434  -0.000951
   27  CL 2  Y    0.000123  -0.000232   0.000590  -0.003027   0.000660
   28  CL 2  Z   -0.000000   0.000000   0.000000  -0.000000  -0.000000
   29  CL 3  S    0.000015  -0.000008  -0.376875   0.000166   0.001784
   30  CL 3  S   -0.000019   0.000008   1.053302  -0.000450  -0.004964
   31  CL 3  X   -0.000042  -0.000006   0.001465  -0.000128   0.715201
   32  CL 3  Y    0.000007  -0.000039  -0.002962  -0.000065  -0.682886
   33  CL 3  Z   -0.000000  -0.000000   0.000000  -0.000000  -0.000000
   34  CL 3  S    0.000614  -0.000329   0.046397   0.000993   0.006263
   35  CL 3  X    0.000304  -0.000011   0.003947   0.001292   0.032241
   36  CL 3  Y   -0.000095   0.000247  -0.002964   0.000616  -0.029929
   37  CL 3  Z   -0.000000  -0.000000   0.000000  -0.000000  -0.000000

                     11         12         13         14         15
                   -7.9893    -7.9570    -7.4364    -7.4344    -7.4337
                     A          A          A          A          A   
    1  CU 1  S   -0.000010   0.000000   0.000016  -0.000010   0.000000
    2  CU 1  S    0.000043   0.000000  -0.000033   0.000045  -0.000000
    3  CU 1  X   -0.000057   0.000000   0.000062   0.000062   0.000000
    4  CU 1  Y   -0.000085   0.000000   0.000048  -0.000088   0.000000
    5  CU 1  Z    0.000000  -0.000088  -0.000000  -0.000000  -0.000085
    6  CU 1  S   -0.000815  -0.000000   0.001537  -0.000773   0.000000
    7  CU 1  X    0.000202   0.000000  -0.000214  -0.000223   0.000000
    8  CU 1  Y    0.000300   0.000000  -0.000169   0.000312   0.000000
    9  CU 1  Z    0.000000   0.000311  -0.000000  -0.000000   0.000302
   10  CU 1 XX    0.000408   0.000000  -0.000292   0.000414   0.000000
   11  CU 1 YY    0.000266   0.000000  -0.000586   0.000256   0.000000
   12  CU 1 ZZ    0.000416   0.000000  -0.000846   0.000385   0.000000
   13  CU 1 XY    0.000071   0.000000   0.000420  -0.000048   0.000000
   14  CU 1 XZ    0.000000   0.000092  -0.000000  -0.000000  -0.000095
   15  CU 1 YZ    0.000000  -0.000069  -0.000000  -0.000000  -0.000068
   16  CU 1  S   -0.001858   0.000000   0.008253  -0.001478  -0.000000
   17  CU 1  X   -0.001807   0.000000   0.008355   0.002463   0.000000
   18  CU 1  Y   -0.004182   0.000000   0.006086  -0.004196   0.000000
   19  CU 1  Z    0.000000  -0.003728  -0.000000  -0.000000  -0.003726
   20  CL 2  S    0.000126  -0.000000  -0.002103  -0.000044   0.000000
   21  CL 2  S   -0.000301   0.000000   0.005849   0.000136  -0.000000
   22  CL 2  X   -0.000142   0.000000   0.771914  -0.617062   0.000000
   23  CL 2  Y   -0.000072   0.000000   0.616577   0.772737  -0.000000
   24  CL 2  Z    0.000000   0.000081  -0.000000   0.000000   0.988886
   25  CL 2  S    0.001985   0.000000  -0.006873   0.000567   0.000000
   26  CL 2  X   -0.001229   0.000000   0.037250  -0.026956   0.000000
   27  CL 2  Y   -0.000599   0.000000   0.029301   0.033188   0.000000
   28  CL 2  Z    0.000000   0.000485  -0.000000   0.000000   0.042696
   29  CL 3  S   -0.000354   0.000000  -0.000050   0.000111   0.000000
   30  CL 3  S    0.001020   0.000000   0.000129  -0.000257  -0.000000
   31  CL 3  X    0.683333   0.000000   0.000582  -0.000561   0.000000
   32  CL 3  Y    0.716012   0.000000   0.000339   0.000334  -0.000000
   33  CL 3  Z   -0.000000   0.988825  -0.000000  -0.000000  -0.000278
   34  CL 3  S    0.000874   0.000000  -0.000801   0.002136   0.000000
   35  CL 3  X    0.027808   0.000000  -0.001106   0.001235   0.000000
   36  CL 3  Y    0.028241   0.000000  -0.000640  -0.000716   0.000000
         

 


atau secara 
otomatis laman https://chemcompute.org/gamess/submit
DIPEROLEH STRUKTUR MOLEKUL CuCl2

Output perhitungan komputasi akan secara otomatis ditampilkan pada 
https://chemcompute.org/gamess/status/. Secara manual, file output juga dapat 
didownload dan dibuka menggunakan Notepad++ atau Avogadro

24  CL 2  Z    0.000000   0.000081  -0.000000   0.000000   0.988886
  25  CL 2  S    0.001985   0.000000  -0.006873   0.000567   0.000000
  26  CL 2  X   -0.001229   0.000000   0.037250  -0.026956   0.000000
  27  CL 2  Y   -0.000599   0.000000   0.029301   0.033188   0.000000
  28  CL 2  Z    0.000000   0.000485  -0.000000   0.000000   0.042696
  29  CL 3  S   -0.000354   0.000000  -0.000050   0.000111   0.000000
  30  CL 3  S    0.001020   0.000000   0.000129  -0.000257  -0.000000
  31  CL 3  X    0.683333   0.000000   0.000582  -0.000561   0.000000
  32  CL 3  Y    0.716012   0.000000   0.000339   0.000334  -0.000000
  33  CL 3  Z   -0.000000   0.988825  -0.000000  -0.000000  -0.000278
  34  CL 3  S    0.000874   0.000000  -0.000801   0.002136   0.000000
  35  CL 3  X    0.027808   0.000000  -0.001106   0.001235   0.000000
  36  CL 3  Y    0.028241   0.000000  -0.000640  -0.000716   0.000000
  37  CL 3  Z   -0.000000   0.042914  -0.000000  -0.000000   0.000469
 
                    16         17         18         19         20
                  -3.9055    -2.2547    -2.2524    -2.2506    -0.9785
                    A          A          A          A          A  
   1  CU 1  S    0.159224   0.000020   0.000000   0.002400  -0.002911
   2  CU 1  S   -0.460226  -0.000007   0.000000  -0.007239   0.008497
   3  CU 1  X    0.003696  -0.267209   0.000000  -0.266602  -0.009833
   4  CU 1  Y    0.004284   0.266894   0.000000  -0.267556   0.006894
   5  CU 1  Z    0.000000  -0.000000  -0.378400  -0.000000   0.000000
   6  CU 1  S    0.982416  -0.002082  -0.000000   0.024106  -0.035045
   7  CU 1  X   -0.010120   0.739072  -0.000000   0.737423   0.028973
   8  CU 1  Y   -0.011827  -0.738319  -0.000000   0.740184  -0.020289
   9  CU 1  Z   -0.000000   0.000000   1.046999   0.000000   0.000000
  10  CU 1 XX    0.033049  -0.004239   0.000000  -0.005499   0.009190
  11  CU 1 YY    0.033349   0.006686   0.000000  -0.006402   0.005965
  12  CU 1 ZZ    0.033492   0.001010   0.000000  -0.000605   0.002497
  13  CU 1 XY   -0.000475  -0.000206   0.000000  -0.006108  -0.005543
  14  CU 1 XZ    0.000000   0.000000  -0.004051  -0.000000   0.000000
  15  CU 1 YZ    0.000000  -0.000000  -0.004758  -0.000000   0.000000
  16  CU 1  S    0.032414  -0.010272   0.000000   0.008385   0.010945
  17  CU 1  X   -0.001315   0.072230  -0.000000   0.071880   0.002767
  18  CU 1  Y    0.003159  -0.066106  -0.000000   0.065945  -0.005526
  19  CU 1  Z    0.000000   0.000000   0.083526   0.000000   0.000000
  20  CL 2  S   -0.000068   0.000044   0.000000  -0.000138   0.001101
  21  CL 2  S   -0.000133  -0.000425   0.000000  -0.001372  -0.003712
  22  CL 2  X    0.000173   0.001107  -0.000000   0.000572   0.001092
  23  CL 2  Y    0.000254  -0.000953   0.000000   0.000636  -0.000053
  24  CL 2  Z   -0.000000   0.000000   0.001007  -0.000000   0.000000
  25  CL 2  S   -0.005160  -0.003016   0.000000  -0.024067   0.010890
  26  CL 2  X    0.000865  -0.004099   0.000000   0.005339  -0.003493
  27  CL 2  Y    0.000060   0.006088   0.000000   0.002440   0.000601
  28  CL 2  Z    0.000000   0.000000  -0.005624  -0.000000   0.000000
  29  CL 3  S   -0.000072  -0.000023   0.000000  -0.000061   0.091204
  30  CL 3  S   -0.000160   0.001932   0.000000   0.000465  -0.300214
  31  CL 3  X   -0.000259   0.001230   0.000000   0.001115  -0.001500
  32  CL 3  Y    0.000293  -0.001182   0.000000   0.000795   0.009735
  33  CL 3  Z    0.000000   0.000000   0.001357  -0.000000  -0.000000
  34  CL 3  S   -0.005690   0.022663  -0.000000   0.002581   1.026747
  35  CL 3  X   -0.000646   0.002934   0.000000  -0.004348   0.004558
  36  CL 3  Y    0.000056  -0.000725   0.000000  -0.005538  -0.033770
  37  CL 3  Z    0.000000   0.000000  -0.006904  -0.000000   0.000000
 
                    21         22         23         24         25
                  -0.7637    -0.5052    -0.5019    -0.2095    -0.1853
                    A          A          A          A          A  
   1  CU 1  S   -0.003521   0.004259  -0.006650   0.009634   0.000142
   2  CU 1  S    0.010284  -0.012604   0.019701  -0.029040  -0.000396
   3  CU 1  X    0.010341   0.015089  -0.014316  -0.023477  -0.005465
   4  CU 1  Y    0.007448  -0.001704   0.014932  -0.011281   0.010877
   5  CU 1  Z   -0.000000  -0.000000   0.000000  -0.000000  -0.000000
   6  CU 1  S   -0.038630   0.045140  -0.072189   0.103208   0.001660
   7  CU 1  X   -0.030778  -0.045774   0.043371   0.071905   0.016830
   8  CU 1  Y   -0.022191   0.005164  -0.045271   0.034598  -0.033397
   9  CU 1  Z   -0.000000   0.000000   0.000000  -0.000000   0.000000
  10  CU 1 XX    0.011043  -0.015900   0.014674  -0.026166  -0.009368
  11  CU 1 YY    0.005319  -0.001501   0.013928  -0.014477   0.007980
  12  CU 1 ZZ   -0.000060  -0.001189   0.002830  -0.006946   0.000773
  13  CU 1 XY    0.008977   0.005720  -0.015185  -0.022578   0.008824
  14  CU 1 XZ   -0.000000   0.000000   0.000000  -0.000000  -0.000000
  15  CU 1 YZ   -0.000000   0.000000   0.000000  -0.000000  -0.000000
  16  CU 1  S    0.039205  -0.097381   0.145614  -0.286410   0.000930
  17  CU 1  X    0.009792   0.092574  -0.054797  -0.158689  -0.078144
  18  CU 1  Y    0.010063   0.010140   0.078687  -0.080149   0.118753
  19  CU 1  Z   -0.000000  -0.000000  -0.000000   0.000000  -0.000000
  20  CL 2  S    0.091579   0.000215  -0.004976   0.012213  -0.000116
  21  CL 2  S   -0.301310  -0.001147   0.014816  -0.034036   0.000310
  22  CL 2  X    0.011203  -0.000792   0.008422  -0.198890   0.175512
  23  CL 2  Y    0.008386  -0.001183  -0.000170  -0.157255  -0.220902
  24  CL 2  Z   -0.000000  -0.000000   0.000000  -0.000000   0.000000
  25  CL 2  S    1.008956  -0.002920  -0.074778   0.214989  -0.002140
  26  CL 2  X   -0.035808   0.003862  -0.022509   0.683544  -0.622761
  27  CL 2  Y   -0.027017   0.006353   0.002496   0.541957   0.783874
  28  CL 2  Z    0.000000   0.000000   0.000000   0.000000  -0.000000
  29  CL 3  S   -0.001945   0.005432  -0.004045   0.002938  -0.002535
  30  CL 3  S    0.006027  -0.015678   0.010214  -0.008116   0.005955
  31  CL 3  X   -0.005104  -0.026870  -0.272239  -0.030237   0.019157
  32  CL 3  Y    0.000376  -0.276727   0.011674   0.006111  -0.005254
  33  CL 3  Z   -0.000000   0.000000   0.000000   0.000000  -0.000000
  34  CL 3  S   -0.026725   0.090613  -0.085993   0.052960  -0.058357
  35  CL 3  X    0.016660   0.105415   0.966247   0.117202  -0.078898
  36  CL 3  Y   -0.000632   0.987845  -0.032873  -0.022569   0.024241
  37  CL 3  Z   -0.000000  -0.000000  -0.000000  -0.000000   0.000000
 
                    26         27         28         29         30
                  -0.1751     0.1407     0.2077     0.3082     0.3974
                    A          A          A          A          A  
   1  CU 1  S    0.000000  -0.018471   0.000000  -0.000000   0.005431
   2  CU 1  S    0.000000   0.056555   0.000000  -0.000000  -0.017656
   3  CU 1  X   -0.000000  -0.015152   0.000000  -0.000000   0.057552
   4  CU 1  Y    0.000000  -0.040047   0.000000  -0.000000  -0.045733
   5  CU 1  Z    0.016587  -0.000000   0.039696   0.062322   0.000000
   6  CU 1  S   -0.000000  -0.155767  -0.000000   0.000000   0.057316
   7  CU 1  X    0.000000   0.047043   0.000000   0.000000  -0.179807
   8  CU 1  Y   -0.000000   0.123912   0.000000  -0.000000   0.142861
   9  CU 1  Z   -0.050922   0.000000  -0.123089  -0.193971  -0.000000
  10  CU 1 XX    0.000000  -0.009996   0.000000  -0.000000   0.022825
  11  CU 1 YY    0.000000   0.014805   0.000000  -0.000000  -0.002870
  12  CU 1 ZZ    0.000000   0.038320   0.000000  -0.000000  -0.056092
  13  CU 1 XY    0.000000   0.008259  -0.000000   0.000000  -0.084935
  14  CU 1 XZ    0.008009  -0.000000  -0.015167   0.004503   0.000000
  15  CU 1 YZ    0.006400  -0.000000   0.009197  -0.010262   0.000000
  16  CU 1  S    0.000000   0.883575   0.000000  -0.000000  -0.330201
  17  CU 1  X   -0.000000  -0.218651   0.000000  -0.000000   0.934054
  18  CU 1  Y    0.000000  -0.463129   0.000000  -0.000000  -0.721769
  19  CU 1  Z    0.177355  -0.000000   0.512861   0.870525   0.000000
  20  CL 2  S    0.000000  -0.004921   0.000000  -0.000000  -0.001794
  21  CL 2  S    0.000000   0.014797   0.000000  -0.000000   0.002974
  22  CL 2  X    0.000000  -0.035338  -0.000000   0.000000   0.030986
  23  CL 2  Y   -0.000000  -0.055798  -0.000000   0.000000  -0.060734
  24  CL 2  Z   -0.277936   0.000000   0.063958   0.057054  -0.000000
  25  CL 2  S   -0.000000  -0.073298  -0.000000   0.000000  -0.055958
  26  CL 2  X   -0.000000   0.126665   0.000000  -0.000000  -0.116978
  27  CL 2  Y    0.000000   0.208020   0.000000  -0.000000   0.250455
  28  CL 2  Z    0.984823  -0.000000  -0.242166  -0.227721  -0.000000
  29  CL 3  S   -0.000000  -0.010272   0.000000  -0.000000   0.023364
  30  CL 3  S    0.000000   0.026206   0.000000  -0.000000  -0.052377
  31  CL 3  X    0.000000   0.037010  -0.000000   0.000000  -0.091971
  32  CL 3  Y   -0.000000  -0.061097  -0.000000   0.000000   0.067373
  33  CL 3  Z   -0.019980   0.000000  -0.229732   0.177511   0.000000
  34  CL 3  S   -0.000000  -0.212460  -0.000000  -0.000000   0.571751
  35  CL 3  X   -0.000000  -0.153789   0.000000  -0.000000   0.426192
  36  CL 3  Y    0.000000   0.252053   0.000000  -0.000000  -0.309851
  37  CL 3  Z    0.066148  -0.000000   0.803061  -0.656283  -0.000000
 
                    31         32         33         34         35
                   0.4661     0.8530     0.8549     0.8560     0.8622
                    A          A          A          A          A  
   1  CU 1  S   -0.011135   0.000000  -0.000372  -0.000000  -0.001524
   2  CU 1  S    0.035685   0.000000   0.001194  -0.000000   0.005042
   3  CU 1  X    0.045073   0.000000  -0.000068  -0.000000  -0.003437
   4  CU 1  Y    0.044898   0.000000  -0.000439  -0.000000   0.005396
   5  CU 1  Z   -0.000000  -0.000556  -0.000000  -0.001927  -0.000000
   6  CU 1  S   -0.115426  -0.000000  -0.003658  -0.000000  -0.019777
   7  CU 1  X   -0.141000   0.000000   0.000414  -0.000000   0.010565
   8  CU 1  Y   -0.140479   0.000000   0.000886  -0.000000  -0.016708
   9  CU 1  Z   -0.000000   0.001585  -0.000000   0.005461  -0.000000
  10  CU 1 XX   -0.057374  -0.000000  -0.348883  -0.000000   0.866531
  11  CU 1 YY    0.017558  -0.000000   0.983430   0.000000  -0.179022
  12  CU 1 ZZ    0.106841   0.000000  -0.632529  -0.000000  -0.671793
  13  CU 1 XY   -0.094931   0.000000  -0.081055   0.000000  -0.411136
  14  CU 1 XZ   -0.000000  -0.556267  -0.000000   0.830823   0.000000
  15  CU 1 YZ   -0.000000   0.830785  -0.000000   0.556380   0.000000
  16  CU 1  S    0.623936  -0.000000   0.022201  -0.000000   0.085215
  17  CU 1  X    0.753509   0.000000  -0.014774  -0.000000  -0.048501
  18  CU 1  Y    0.751205  -0.000000   0.026440  -0.000000   0.083138
  19  CU 1  Z    0.000000   0.002004  -0.000000   0.004693   0.000000
  20  CL 2  S   -0.026377   0.000000  -0.000369  -0.000000  -0.001603
  21  CL 2  S    0.061393   0.000000   0.000929  -0.000000   0.004247
  22  CL 2  X   -0.130245   0.000000  -0.004160  -0.000000  -0.008346
  23  CL 2  Y   -0.080909   0.000000   0.002475  -0.000000  -0.004408
  24  CL 2  Z    0.000000  -0.000119  -0.000000   0.004756  -0.000000
  25  CL 2  S   -0.611893   0.000000  -0.007754   0.000000  -0.031066
  26  CL 2  X    0.565968  -0.000000   0.016561   0.000000   0.035389
  27  CL 2  Y    0.352238   0.000000  -0.008902  -0.000000   0.016504
  28  CL 2  Z   -0.000000   0.000360   0.000000  -0.017356  -0.000000
  29  CL 3  S   -0.004979   0.000000  -0.000995  -0.000000  -0.003808
  30  CL 3  S    0.012897   0.000000   0.002555  -0.000000   0.010086
  31  CL 3  X    0.046940   0.000000   0.006001  -0.000000   0.016973
  32  CL 3  Y    0.020191   0.000000  -0.000742  -0.000000  -0.012508
  33  CL 3  Z    0.000000   0.006916  -0.000000  -0.001598  -0.000000
  34  CL 3  S   -0.101225   0.000000  -0.020429   0.000000  -0.074454
  35  CL 3  X   -0.199659   0.000000  -0.024837   0.000000  -0.071778
  36  CL 3  Y   -0.087069  -0.000000   0.004335  -0.000000   0.051481
  37  CL 3  Z   -0.000000  -0.024947  -0.000000   0.005659  -0.000000
 
                    36         37
                   0.8709     4.2443
                    A          A  
   1  CU 1  S   -0.000921   0.149491
   2  CU 1  S    0.002981  -0.637397
   3  CU 1  X    0.006485   0.000401
   4  CU 1  Y    0.001355   0.002799
   5  CU 1  Z    0.000000  -0.000000
   6  CU 1  S   -0.008853   6.964762
   7  CU 1  X   -0.020986  -0.001110
   8  CU 1  Y   -0.004666  -0.008972
   9  CU 1  Z    0.000000  -0.000000
  10  CU 1 XX    0.359061  -3.090656
  11  CU 1 YY    0.006242  -3.093265
  12  CU 1 ZZ   -0.360537  -3.095533
  13  CU 1 XY    0.898833  -0.000527
  14  CU 1 XZ   -0.000000  -0.000000
  15  CU 1 YZ    0.000000  -0.000000
  16  CU 1  S    0.063285   0.426001
  17  CU 1  X    0.163343   0.001791
  18  CU 1  Y    0.053918   0.067603
  19  CU 1  Z    0.000000  -0.000000
  20  CL 2  S   -0.005504  -0.003026
  21  CL 2  S    0.014498   0.004794
  22  CL 2  X   -0.025826  -0.005222
  23  CL 2  Y   -0.020299  -0.001575
  24  CL 2  Z    0.000000  -0.000000
  25  CL 2  S   -0.107423  -0.100338
  26  CL 2  X    0.106268   0.039580
  27  CL 2  Y    0.083826   0.018010
  28  CL 2  Z    0.000000  -0.000000
  29  CL 3  S    0.001679  -0.002933
  30  CL 3  S   -0.004401   0.004529
  31  CL 3  X   -0.005520   0.005134
  32  CL 3  Y    0.008553  -0.001714
  33  CL 3  Z    0.000000  -0.000000
  34  CL 3  S    0.033309  -0.099059
  35  CL 3  X    0.022368  -0.038997
  36  CL 3  Y   -0.037331   0.018841
  37  CL 3  Z   -0.000000  -0.000000
...... END OF ROHF CALCULATION ......
STEP CPU TIME =     0.27 TOTAL CPU TIME =          0.4 (      0.0 MIN)
TOTAL WALL CLOCK TIME=          0.5 SECONDS, CPU UTILIZATION IS    84.31%
 
    ----------------------------------------------------------------
    PROPERTY VALUES FOR THE ROHF  SELF-CONSISTENT FIELD WAVEFUNCTION
    ----------------------------------------------------------------
 
         -----------------
         ENERGY COMPONENTS
         -----------------
 
        WAVEFUNCTION NORMALIZATION =       1.0000000000
 
               ONE ELECTRON ENERGY =   -3893.2477351735
               TWO ELECTRON ENERGY =    3622.5474247915
          NUCLEAR REPULSION ENERGY =     270.7003103820
                                     ------------------
                      TOTAL ENERGY =       0.0000000000
 
ELECTRON-ELECTRON POTENTIAL ENERGY =    3622.5474247915
 NUCLEUS-ELECTRON POTENTIAL ENERGY =   -6335.1472990229
  NUCLEUS-NUCLEUS POTENTIAL ENERGY =     270.7003103820
                                     ------------------
            TOTAL POTENTIAL ENERGY =   -2441.8995638494
              TOTAL KINETIC ENERGY =    2441.8995638494
                VIRIAL RATIO (V/T) =       1.0000000000
 
 ...... PI ENERGY ANALYSIS ......
 
ENERGY ANALYSIS:
           FOCK ENERGY=  -1504.5494709043
         BARE H ENERGY=  -3893.2477351735
    ELECTRONIC ENERGY =  -2698.8986030389
        KINETIC ENERGY=   2441.8995638494
         N-N REPULSION=    270.7003103820
          TOTAL ENERGY=  -2428.1982926569
       SIGMA PART(1+2)=  -2330.3821315837
              (K,V1,2)=   2174.6055523492  -5434.2076931104    929.2200091775
          PI PART(1+2)=   -368.5164714552
              (K,V1,2)=    267.2940115002   -900.9396059125    265.1291229571
 SIGMA SKELETON, ERROR=  -2059.6818212017     -0.0000000000
            MIXED PART=-9.65902E-21 0.00000E+00 0.00000E+00-9.65902E-21
...... END OF PI ENERGY ANALYSIS ......
 
         ---------------------------------------
         MULLIKEN AND LOWDIN POPULATION ANALYSES
         ---------------------------------------
 
    ATOMIC MULLIKEN POPULATION IN EACH MOLECULAR ORBITAL
 
                     1          2          3          4          5
 
                 2.000000   2.000000   2.000000   2.000000   2.000000
 
   1             2.000000   0.000015   0.000015   2.000033   2.000000
   2             0.000000  -0.000000   1.999985  -0.000016   0.000000
   3             0.000000   1.999985  -0.000000  -0.000016   0.000000
 
                     6          7          8          9         10
 
                 2.000000   2.000000   2.000000   2.000000   2.000000
 
   1             1.999998   1.999998  -0.002265  -0.002456  -0.000652
   2             0.000000   0.000002   0.000000   2.002455   0.000000
   3             0.000002   0.000001   2.002265   0.000000   2.000652
 
                    11         12         13         14         15
 
                 2.000000   2.000000   2.000000   2.000000   2.000000
 
   1            -0.000082  -0.000059  -0.000725  -0.000080  -0.000059
   2             0.000000   0.000000   2.000724   2.000080   2.000059
   3             2.000082   2.000059   0.000000   0.000000   0.000000
 
                    16         17         18         19         20
 
                 2.000000   2.000000   2.000000   2.000000   2.000000
 
   1             2.000446   2.001883   2.000208   2.002116   0.003893
   2            -0.000216  -0.000163  -0.000101  -0.001966   0.000386
   3            -0.000230  -0.001721  -0.000107  -0.000150   1.995721
 
                    21         22         23         24         25
 
                 2.000000   2.000000   2.000000   2.000000   2.000000
 
   1             0.037756   0.080414   0.138834   0.339361   0.065854
   2             1.960625   0.000002   0.006948   1.643804   1.928033
   3             0.001620   1.919584   1.854218   0.016835   0.006113
 
                    26         27         28         29         30
 
                 2.000000   2.000000   2.000000   2.000000   2.000000
 
   1             0.112129   1.846001   0.596668   1.292490   1.834088
   2             1.876433   0.083525   0.077593   0.045631   0.060973
   3             0.011438   0.070474   1.325739   0.661878   0.104938
 
                    31         32
 
                 2.000000   1.000000
 
   1             1.679631   0.999528
   2             0.297509   0.000000
   3             0.022860   0.000471
 
    ATOMIC SPIN POPULATION (ALPHA MINUS BETA)
      ATOM         MULL.POP.                    LOW.POP.
   1 CU            0.999910                     0.999904
   2 CL            0.000001                     0.000001
   3 CL            0.000089                     0.000094
 
              ----- POPULATIONS IN EACH AO -----
                            MULLIKEN      LOWDIN
             1  CU 1  S      1.99928     1.99923
             2  CU 1  S      1.95061     1.98517
             3  CU 1  X      1.99999     1.99999
             4  CU 1  Y      2.00000     1.99999
             5  CU 1  Z      2.00000     2.00000
             6  CU 1  S      2.10731     0.93390
             7  CU 1  X      1.99984     1.99975
             8  CU 1  Y      1.99977     1.99977
             9  CU 1  Z      1.99994     1.99994
            10  CU 1 XX     -0.00886     0.37356
            11  CU 1 YY     -0.01609     0.36344
            12  CU 1 ZZ      0.00464     0.38129
            13  CU 1 XY      0.03994     0.04185
            14  CU 1 XZ      0.24369     0.24371
            15  CU 1 YZ      0.75691     0.75692
            16  CU 1  S      1.98209     1.98490
            17  CU 1  X      1.97461     1.97637
            18  CU 1  Y      1.99104     1.99210
            19  CU 1  Z      1.99996     1.99996
            20  CL 2  S      2.00000     1.99999
            21  CL 2  S      1.99993     1.99994
            22  CL 2  X      1.99982     1.99968
            23  CL 2  Y      1.99989     1.99981
            24  CL 2  Z      1.99999     1.99999
            25  CL 2  S      1.99806     1.99492
            26  CL 2  X      1.99058     1.99012
            27  CL 2  Y      1.99446     1.99422
            28  CL 2  Z      1.99961     1.99960
            29  CL 3  S      2.00000     2.00000
            30  CL 3  S      1.99996     1.99997
            31  CL 3  X      1.99992     1.99986
            32  CL 3  Y      1.99995     1.99991
            33  CL 3  Z      2.00000     2.00000
            34  CL 3  S      1.99926     1.99715
            35  CL 3  X      1.99636     1.99581
            36  CL 3  Y      1.99764     1.99730
            37  CL 3  Z      1.99989     1.99988
 
         ----- MULLIKEN ATOMIC OVERLAP POPULATIONS -----
         (OFF-DIAGONAL ELEMENTS NEED TO BE MULTIPLIED BY 2)
 
            1           2           3
 
   1   29.5597504
   2   -1.2577148  19.2374525
   3   -1.2773666   0.0026070  19.2677461
 
         TOTAL MULLIKEN AND LOWDIN ATOMIC POPULATIONS
      ATOM         MULL.POP.    CHARGE          LOW.POP.     CHARGE
   1 CU           27.024669    1.975331        27.031844    1.968156
   2 CL           17.982345   -0.982345        17.978281   -0.978281
   3 CL           17.992986   -0.992986        17.989875   -0.989875
 
         -------------------------------
         BOND ORDER AND VALENCE ANALYSIS     BOND ORDER THRESHOLD=0.050
         -------------------------------
 
                  BOND                       BOND                       BOND
 ATOM PAIR DIST  ORDER      ATOM PAIR DIST  ORDER      ATOM PAIR DIST  ORDER
 
                      TOTAL       BONDED        FREE
     ATOM            VALENCE     VALENCE     VALENCE
   1 CU                1.049       0.049       1.000
   2 CL                0.035       0.035       0.000
   3 CL                0.014       0.014       0.000
 
         -----------------------------------------
         ATOMIC SPIN DENSITY AT THE NUCLEUS (A.U.)
         -----------------------------------------
                           SPIN DENS    ALPHA DENS     BETA DENS
   1  CU          29.0     0.0000000    5441.35183    5441.35183
   2  CL          17.0     0.0000000    1012.44435    1012.44435
   3  CL          17.0     0.0000000    1012.45416    1012.45416
 
         ---------------------
         ELECTROSTATIC MOMENTS
         ---------------------
 
POINT   1           X           Y           Z (BOHR)    CHARGE
               -0.879271    1.813071    0.000000       -0.00 (A.U.)
        DX          DY          DZ         /D/  (DEBYE)
    0.087283   -8.994689   -0.000000    8.995113
...... END OF PROPERTY EVALUATION ......
STEP CPU TIME =     0.02 TOTAL CPU TIME =          0.4 (      0.0 MIN)
TOTAL WALL CLOCK TIME=          0.5 SECONDS, CPU UTILIZATION IS    83.33%
              580000  WORDS OF DYNAMIC MEMORY USED
EXECUTION OF GAMESS TERMINATED NORMALLY Wed Jun 15 14:18:19 2022
DDI: 263640 bytes (0.3 MB / 0 MWords) used by master data server.
 
----------------------------------------
CPU timing information for all processes
========================================
0: 0.179 + 0.284 = 0.463
----------------------------------------
ddikick.x: exited gracefully. 
----- accounting info -----
Files used on the master node chemcompute-node-0.novalocal were:
-rw-r--r--. 1 chemcomp chemcomp      328 Jun 15 14:18 /scratch/385486/434600.F05
-rw-rw-r--. 1 chemcomp chemcomp   900080 Jun 15 14:18 /scratch/385486/434600.F08
-rw-rw-r--. 1 chemcomp chemcomp 62259200 Jun 15 14:18 /scratch/385486/434600.F10
Wed Jun 15 14:18:23 UTC 2022
0.184u 0.114s 0:06.94 4.1%0+0k 8+216io 0pf+0w
Finishing Up...
Looking for IR data...
Looking for Raman data...
vibramans not found
Looking for thermodynamics data...
Looking for UV-Vis data...
385486
